LAMMPS Description

1026  atoms
682  bonds
350  angles
18  dihedrals
0  impropers

5  atom types
2  bond types
2  angle types
1  dihedral types
0  improper types

0 26.87163258204855 xlo xhi
0 26.87163258204855 ylo yhi
0 26.87163258204855 zlo zhi

Masses

1 15.9994  # O
2 1.008  # H
3 132.905452  # Cation
4 14.0067  # N_NO3
5 15.999  # O_NO3

Atoms

1 1 1 -0.8476 18.037884 15.054245 12.866890
2 1 2 0.4238 17.309829 14.430112 13.012818
3 1 2 0.4238 18.721429 14.632270 12.323197
4 2 1 -0.8476 21.865386 6.063889 11.994713
5 2 2 0.4238 21.174935 5.455702 11.687653
6 2 2 0.4238 22.545322 5.565455 12.474452
7 3 1 -0.8476 15.089744 18.444371 12.178879
8 3 2 0.4238 15.382034 17.536011 12.353085
9 3 2 0.4238 15.855996 18.991449 11.945508
10 4 1 -0.8476 17.203477 7.907302 1.298779
11 4 2 0.4238 16.632102 7.919470 2.082541
12 4 2 0.4238 17.151830 8.764462 0.847661
13 5 1 -0.8476 8.360770 1.959841 11.094894
14 5 2 0.4238 8.393698 1.025337 11.352805
15 5 2 0.4238 8.895865 2.484323 11.710922
16 6 1 -0.8476 13.457147 16.869968 13.194446
17 6 2 0.4238 13.394853 16.111414 12.593102
18 6 2 0.4238 12.701674 17.460743 13.049035
19 7 1 -0.8476 20.409865 18.968898 3.359754
20 7 2 0.4238 20.289549 18.029438 3.569130
21 7 2 0.4238 21.344788 19.205968 3.462791
22 8 1 -0.8476 12.605046 0.711897 1.912751
23 8 2 0.4238 13.495079 1.096765 1.937609
24 8 2 0.4238 11.952618 1.415085 1.768654
25 9 1 -0.8476 14.361857 3.917441 2.517814
26 9 2 0.4238 14.803528 4.780495 2.486754
27 9 2 0.4238 15.028846 3.213791 2.547824
28 10 1 -0.8476 23.280906 1.129239 9.259995
29 10 2 0.4238 24.180362 1.085334 9.620482
30 10 2 0.4238 23.237030 0.617512 8.437129
31 11 1 -0.8476 2.722567 14.944589 18.062634
32 11 2 0.4238 1.879803 14.728448 17.633761
33 11 2 0.4238 3.162169 14.126435 18.342406
34 12 1 -0.8476 18.046048 14.651146 10.228935
35 12 2 0.4238 18.388442 15.414570 9.738170
36 12 2 0.4238 17.105330 14.786799 10.422703
37 13 1 -0.8476 15.215637 6.178215 13.117889
38 13 2 0.4238 14.615953 6.879421 12.818575
39 13 2 0.4238 15.235663 6.161972 14.087545
40 14 1 -0.8476 6.949025 16.270065 8.451241
41 14 2 0.4238 7.789830 16.602972 8.802125
42 14 2 0.4238 6.857495 15.329331 8.669278
43 15 1 -0.8476 7.472585 6.939628 13.677527
44 15 2 0.4238 7.445220 5.993880 13.463722
45 15 2 0.4238 6.737830 7.392564 13.234941
46 16 1 -0.8476 14.574319 13.102444 20.326067
47 16 2 0.4238 15.140034 13.813572 19.986708
48 16 2 0.4238 13.859694 13.484375 20.859300
49 17 1 -0.8476 2.728412 20.083731 7.816439
50 17 2 0.4238 1.808247 19.836166 7.997845
51 17 2 0.4238 2.745770 20.863848 7.240231
52 18 1 -0.8476 11.234728 13.277717 11.932329
53 18 2 0.4238 10.356702 13.675516 11.824036
54 18 2 0.4238 11.728250 13.763516 12.611545
55 19 1 -0.8476 16.226622 1.117651 18.403361
56 19 2 0.4238 16.350323 1.482615 19.293529
57 19 2 0.4238 17.091951 0.923816 18.010256
58 20 1 -0.8476 12.533155 7.251163 2.826234
59 20 2 0.4238 11.979286 6.454852 2.822086
60 20 2 0.4238 13.459109 7.001735 2.680309
61 21 1 -0.8476 3.215715 3.475035 12.166847
62 21 2 0.4238 3.907950 3.384403 12.840268
63 21 2 0.4238 2.344340 3.418987 12.589296
64 22 1 -0.8476 14.438146 8.383925 5.150215
65 22 2 0.4238 14.788478 7.521747 4.876688
66 22 2 0.4238 15.159599 9.031667 5.179129
67 23 1 -0.8476 5.406912 8.306927 4.695219
68 23 2 0.4238 4.441883 8.397694 4.658052
69 23 2 0.4238 5.754750 8.847304 5.421786
70 24 1 -0.8476 13.830105 9.054268 1.305019
71 24 2 0.4238 13.452764 9.947211 1.339164
72 24 2 0.4238 14.792848 9.105796 1.411646
73 25 1 -0.8476 12.251961 6.579254 12.011180
74 25 2 0.4238 11.292493 6.654387 11.890036
75 25 2 0.4238 12.649735 7.463849 11.998319
76 26 1 -0.8476 8.421280 10.908947 16.417046
77 26 2 0.4238 8.647413 10.018963 16.104489
78 26 2 0.4238 8.727050 11.565607 15.771909
79 27 1 -0.8476 17.218208 14.229093 24.180652
80 27 2 0.4238 17.680438 13.579523 23.628111
81 27 2 0.4238 16.994798 15.007325 23.646479
82 28 1 -0.8476 21.393251 18.735768 9.914653
83 28 2 0.4238 21.556223 19.322654 10.669573
84 28 2 0.4238 20.908613 17.950703 10.214150
85 29 1 -0.8476 20.727884 19.670437 15.763683
86 29 2 0.4238 21.656974 19.910622 15.622253
87 29 2 0.4238 20.182037 20.472252 15.757134
88 30 1 -0.8476 8.656852 4.908145 11.325010
89 30 2 0.4238 9.261105 5.524784 10.882818
90 30 2 0.4238 9.032082 4.644860 12.179869
91 31 1 -0.8476 10.807052 7.146136 18.281538
92 31 2 0.4238 10.100397 6.498862 18.431790
93 31 2 0.4238 11.037674 7.160211 17.339459
94 32 1 -0.8476 13.004713 20.399960 18.058102
95 32 2 0.4238 12.168505 20.824375 17.810050
96 32 2 0.4238 13.683560 21.078998 18.195842
97 33 1 -0.8476 12.093636 21.011709 13.662621
98 33 2 0.4238 12.669258 20.239539 13.547239
99 33 2 0.4238 12.614135 21.822576 13.550934
100 34 1 -0.8476 8.096452 10.091113 4.011025
101 34 2 0.4238 8.681962 10.227684 3.249825
102 34 2 0.4238 8.351391 10.693568 4.727233
103 35 1 -0.8476 6.940356 2.656735 3.347466
104 35 2 0.4238 7.309229 2.669862 2.450438
105 35 2 0.4238 7.341128 3.367249 3.872300
106 36 1 -0.8476 11.265136 17.591476 18.630822
107 36 2 0.4238 10.557894 18.220496 18.843054
108 36 2 0.4238 11.259581 16.868459 19.277439
109 37 1 -0.8476 8.191815 16.961902 19.374761
110 37 2 0.4238 7.508012 17.392730 19.911138
111 37 2 0.4238 9.032237 16.964841 19.859096
112 38 1 -0.8476 19.410010 15.909175 18.369873
113 38 2 0.4238 20.124612 16.559943 18.451996
114 38 2 0.4238 19.012848 15.974726 17.487340
115 39 1 -0.8476 9.185349 13.235640 19.787356
116 39 2 0.4238 8.764346 13.274677 20.660358
117 39 2 0.4238 8.802376 12.505709 19.276053
118 40 1 -0.8476 2.240002 14.418640 7.111063
119 40 2 0.4238 2.370682 13.494862 7.376503
120 40 2 0.4238 3.096627 14.873216 7.089792
121 41 1 -0.8476 9.274527 4.365490 6.406135
122 41 2 0.4238 9.945566 4.795831 6.958777
123 41 2 0.4238 8.421352 4.374513 6.867557
124 42 1 -0.8476 10.029195 9.277006 6.651670
125 42 2 0.4238 9.832595 10.211502 6.481478
126 42 2 0.4238 10.990223 9.146154 6.665840
127 43 1 -0.8476 0.912380 8.370709 16.940259
128 43 2 0.4238 0.032880 7.973096 17.036615
129 43 2 0.4238 1.547715 7.887784 17.491651
130 44 1 -0.8476 0.503090 21.372350 1.247267
131 44 2 0.4238 0.755377 21.184769 0.329626
132 44 2 0.4238 1.211155 21.081683 1.843132
133 45 1 -0.8476 11.431726 7.052753 5.961911
134 45 2 0.4238 12.072594 6.324996 5.938292
135 45 2 0.4238 10.533355 6.695090 5.885060
136 46 1 -0.8476 8.546235 22.018163 17.684780
137 46 2 0.4238 8.205751 21.837802 16.794588
138 46 2 0.4238 8.892187 21.198322 18.070884
139 47 1 -0.8476 4.736481 17.214354 2.714131
140 47 2 0.4238 4.230803 16.439480 3.005266
141 47 2 0.4238 5.528436 16.922636 2.236001
142 48 1 -0.8476 5.878910 14.008667 15.248132
143 48 2 0.4238 6.590396 13.449365 15.597229
144 48 2 0.4238 5.073097 13.478961 15.143373
145 49 1 -0.8476 23.511197 6.673778 6.383987
146 49 2 0.4238 23.892987 6.355414 5.551052
147 49 2 0.4238 24.180225 6.627628 7.084822
148 50 1 -0.8476 13.866881 14.504992 14.601581
149 50 2 0.4238 14.447586 15.270498 14.468605
150 50 2 0.4238 13.795703 14.005386 13.773194
151 51 1 -0.8476 11.395024 16.139689 11.365567
152 51 2 0.4238 10.485619 15.820685 11.255477
153 51 2 0.4238 11.410311 17.106379 11.286993
154 52 1 -0.8476 19.701276 5.285194 20.107291
155 52 2 0.4238 20.532048 5.137710 20.585795
156 52 2 0.4238 19.486874 4.498651 19.581667
157 53 1 -0.8476 17.943010 18.123769 5.575534
158 53 2 0.4238 17.309729 18.523637 6.191944
159 53 2 0.4238 18.816783 18.524832 5.704250
160 54 1 -0.8476 0.287116 0.350428 15.861506
161 54 2 0.4238 0.355657 0.896582 15.062809
162 54 2 0.4238 0.751261 0.787243 16.592711
163 55 1 -0.8476 12.958050 10.631344 16.497546
164 55 2 0.4238 12.203604 11.022953 16.964829
165 55 2 0.4238 13.526839 11.337470 16.152926
166 56 1 -0.8476 12.696997 1.607625 10.105729
167 56 2 0.4238 11.971272 1.304539 10.673498
168 56 2 0.4238 12.536346 2.526082 9.838283
169 57 1 -0.8476 13.372680 2.330570 23.837738
170 57 2 0.4238 13.811498 3.184065 23.696724
171 57 2 0.4238 14.041241 1.631830 23.913161
172 58 1 -0.8476 19.089453 16.535470 22.645868
173 58 2 0.4238 19.923742 16.988539 22.844841
174 58 2 0.4238 19.277758 15.655564 22.283645
175 59 1 -0.8476 11.153950 18.626959 23.638788
176 59 2 0.4238 11.045570 17.664681 23.582439
177 59 2 0.4238 10.548760 19.057577 23.014919
178 60 1 -0.8476 2.913808 1.842865 14.990202
179 60 2 0.4238 3.480126 1.686598 14.218343
180 60 2 0.4238 2.928938 2.785927 15.216706
181 61 1 -0.8476 9.160277 16.014809 2.626738
182 61 2 0.4238 8.395754 15.750868 3.162219
183 61 2 0.4238 9.129044 15.558314 1.771440
184 62 1 -0.8476 21.926176 8.195464 10.412162
185 62 2 0.4238 21.498725 8.838235 9.824769
186 62 2 0.4238 21.453913 8.167315 11.258965
187 63 1 -0.8476 1.367718 2.813072 19.595016
188 63 2 0.4238 1.096878 3.715168 19.826898
189 63 2 0.4238 2.252891 2.639475 19.951712
190 64 1 -0.8476 17.937296 13.393693 17.553853
191 64 2 0.4238 17.240383 14.065456 17.491029
192 64 2 0.4238 17.572829 12.526548 17.316954
193 65 1 -0.8476 15.543949 4.127504 8.728433
194 65 2 0.4238 15.797316 3.422783 9.344934
195 65 2 0.4238 14.806074 3.824447 8.176531
196 66 1 -0.8476 13.947695 19.365974 23.900435
197 66 2 0.4238 13.338458 20.086794 23.676497
198 66 2 0.4238 13.513864 18.513738 23.738012
199 67 1 -0.8476 15.598136 2.304791 0.588903
200 67 2 0.4238 14.965519 1.824313 0.032272
201 67 2 0.4238 16.007290 3.016848 0.072698
202 68 1 -0.8476 16.706748 15.802383 4.773026
203 68 2 0.4238 17.521910 15.956058 5.275813
204 68 2 0.4238 16.921103 15.702225 3.832325
205 69 1 -0.8476 5.158900 8.198768 9.610393
206 69 2 0.4238 4.963140 9.022822 9.137622
207 69 2 0.4238 4.399779 7.598770 9.542294
208 70 1 -0.8476 11.624518 12.926593 24.125936
209 70 2 0.4238 12.568363 12.724588 24.029751
210 70 2 0.4238 11.098987 12.196024 23.764016
211 71 1 -0.8476 18.958251 9.384982 8.927644
212 71 2 0.4238 18.733825 9.289783 9.866510
213 71 2 0.4238 18.152535 9.307423 8.393130
214 72 1 -0.8476 5.800537 11.693890 4.801025
215 72 2 0.4238 5.938415 10.849508 4.343961
216 72 2 0.4238 6.348895 12.378783 4.387354
217 73 1 -0.8476 4.094432 5.435676 11.176518
218 73 2 0.4238 4.875444 5.195824 11.699387
219 73 2 0.4238 3.419750 5.817427 11.759587
220 74 1 -0.8476 17.461488 21.540934 1.695450
221 74 2 0.4238 16.762572 21.692939 2.350669
222 74 2 0.4238 18.319662 21.786196 2.075295
223 75 1 -0.8476 10.778725 10.281172 2.380300
224 75 2 0.4238 11.059068 10.879702 3.090279
225 75 2 0.4238 11.256595 10.500313 1.565121
226 76 1 -0.8476 10.199680 0.025868 6.386063
227 76 2 0.4238 9.825919 0.920172 6.348349
228 76 2 0.4238 11.145680 0.079294 6.593736
229 77 1 -0.8476 7.257528 10.071173 12.167841
230 77 2 0.4238 7.760633 9.249904 12.283178
231 77 2 0.4238 7.717132 10.645853 11.535855
232 78 1 -0.8476 7.188397 13.155586 6.879744
233 78 2 0.4238 6.852299 13.739122 6.181586
234 78 2 0.4238 8.157665 13.191165 6.892095
235 79 1 -0.8476 17.416973 1.852329 21.187156
236 79 2 0.4238 17.141812 2.769885 21.339730
237 79 2 0.4238 17.192093 1.314199 21.962232
238 80 1 -0.8476 12.120799 5.615106 14.926115
239 80 2 0.4238 12.976673 5.944901 14.610499
240 80 2 0.4238 12.265812 4.934177 15.601545
241 81 1 -0.8476 19.531659 0.642571 23.754180
242 81 2 0.4238 20.400909 0.707560 24.179717
243 81 2 0.4238 19.254023 1.520857 23.450156
244 82 1 -0.8476 4.556173 24.036313 21.828450
245 82 2 0.4238 4.743474 23.762094 20.917065
246 82 2 0.4238 4.423812 23.250673 22.381758
247 83 1 -0.8476 20.011186 4.124664 1.085212
248 83 2 0.4238 19.871538 5.032651 0.773829
249 83 2 0.4238 19.366535 3.535388 0.663220
250 84 1 -0.8476 6.081303 19.336041 17.854057
251 84 2 0.4238 6.259186 19.903641 18.620274
252 84 2 0.4238 5.353325 19.712280 17.335028
253 85 1 -0.8476 22.461838 14.902025 5.512017
254 85 2 0.4238 22.137346 15.612972 4.937422
255 85 2 0.4238 23.234464 14.482395 5.102310
256 86 1 -0.8476 7.861509 8.050063 17.614290
257 86 2 0.4238 7.390756 7.704705 16.839680
258 86 2 0.4238 7.388748 8.822310 17.962183
259 87 1 -0.8476 23.273586 6.028770 10.065456
260 87 2 0.4238 23.413807 5.169106 10.492323
261 87 2 0.4238 24.121105 6.370088 9.739707
262 88 1 -0.8476 10.903221 13.553263 9.095663
263 88 2 0.4238 10.922577 14.241308 9.779124
264 88 2 0.4238 10.598394 12.718922 9.485347
265 89 1 -0.8476 10.638010 16.008955 14.514481
266 89 2 0.4238 11.372868 15.465675 14.189319
267 89 2 0.4238 9.874105 15.441125 14.701340
268 90 1 -0.8476 1.842168 14.752125 11.904928
269 90 2 0.4238 1.020138 14.659973 11.398297
270 90 2 0.4238 1.660790 14.601008 12.845760
271 91 1 -0.8476 23.096411 8.364923 3.395334
272 91 2 0.4238 23.088344 9.117019 2.782809
273 91 2 0.4238 23.993148 7.998558 3.445706
274 92 1 -0.8476 3.271528 16.387254 12.292601
275 92 2 0.4238 3.478335 16.949628 13.055402
276 92 2 0.4238 2.813485 16.912820 11.618156
277 93 1 -0.8476 0.393238 17.012018 20.176337
278 93 2 0.4238 0.492493 16.053088 20.283583
279 93 2 0.4238 0.800158 17.465604 20.931038
280 94 1 -0.8476 4.668290 15.948815 17.311800
281 94 2 0.4238 4.959283 15.618082 16.447602
282 94 2 0.4238 5.340609 16.548296 17.671674
283 95 1 -0.8476 12.071304 18.400448 15.907876
284 95 2 0.4238 11.503603 18.355841 15.122621
285 95 2 0.4238 11.538603 18.653444 16.678020
286 96 1 -0.8476 20.359160 2.226804 20.634808
287 96 2 0.4238 20.305956 2.654084 21.504004
288 96 2 0.4238 19.484093 1.890450 20.385763
289 97 1 -0.8476 14.860137 12.818329 22.756702
290 97 2 0.4238 15.049820 12.205907 23.484617
291 97 2 0.4238 15.678356 13.264842 22.488295
292 98 1 -0.8476 12.733259 17.099496 5.101820
293 98 2 0.4238 13.278685 16.300942 5.026169
294 98 2 0.4238 13.139885 17.709834 5.736675
295 99 1 -0.8476 3.213696 14.917199 4.415484
296 99 2 0.4238 3.673550 14.063373 4.395104
297 99 2 0.4238 2.261075 14.768908 4.522354
298 100 1 -0.8476 17.373593 21.084935 15.303238
299 100 2 0.4238 18.267890 21.334284 15.022244
300 100 2 0.4238 16.727624 21.680092 14.891642
301 101 1 -0.8476 14.699512 12.170891 18.336868
302 101 2 0.4238 13.775186 12.339050 18.095528
303 101 2 0.4238 15.190993 11.881371 17.552315
304 102 1 -0.8476 14.318129 8.117594 18.625724
305 102 2 0.4238 13.647351 8.800118 18.467235
306 102 2 0.4238 15.200757 8.518916 18.597298
307 103 1 -0.8476 9.347820 15.562344 21.951818
308 103 2 0.4238 9.918424 14.780534 22.015716
309 103 2 0.4238 8.426051 15.303471 22.107466
310 104 1 -0.8476 18.098185 4.276168 4.543647
311 104 2 0.4238 17.180920 4.442419 4.811761
312 104 2 0.4238 18.672707 4.299675 5.324845
313 105 1 -0.8476 14.263933 21.826066 8.626586
314 105 2 0.4238 13.700362 22.606442 8.746173
315 105 2 0.4238 13.721558 21.077526 8.332621
316 106 1 -0.8476 19.846723 7.640395 6.611374
317 106 2 0.4238 19.469146 8.533582 6.634889
318 106 2 0.4238 20.810438 7.694116 6.707638
319 107 1 -0.8476 2.051920 0.014496 20.300376
320 107 2 0.4238 2.780930 0.593793 20.572148
321 107 2 0.4238 1.205788 0.434744 20.520265
322 108 1 -0.8476 12.120962 19.310821 20.357485
323 108 2 0.4238 12.955961 19.023232 19.956276
324 108 2 0.4238 11.670136 18.546338 20.748920
325 109 1 -0.8476 12.139814 8.119297 0.241095
326 109 2 0.4238 12.462455 7.241944 0.500044
327 109 2 0.4238 11.186077 8.075463 0.069739
328 110 1 -0.8476 10.605477 19.589881 11.302838
329 110 2 0.4238 10.851751 20.512686 11.133486
330 110 2 0.4238 9.736530 19.410019 10.911073
331 111 1 -0.8476 8.339558 9.178576 1.116700
332 111 2 0.4238 7.863813 8.370545 0.868401
333 111 2 0.4238 7.716256 9.920580 1.159394
334 112 1 -0.8476 19.696430 2.832477 10.786767
335 112 2 0.4238 18.983496 3.467895 10.956681
336 112 2 0.4238 19.320610 2.012855 10.429168
337 113 1 -0.8476 1.706690 8.096326 6.766338
338 113 2 0.4238 0.765821 8.164310 6.992265
339 113 2 0.4238 2.005811 8.930879 6.372706
340 114 1 -0.8476 17.800397 5.942297 13.413722
341 114 2 0.4238 18.452968 5.618916 12.773037
342 114 2 0.4238 17.729950 5.313447 14.148898
343 115 1 -0.8476 3.955733 8.067387 12.299770
344 115 2 0.4238 4.434147 8.873644 12.050832
345 115 2 0.4238 4.555845 7.467360 12.769591
346 116 1 -0.8476 19.159110 18.267325 8.698823
347 116 2 0.4238 18.323958 18.368713 8.215976
348 116 2 0.4238 19.869406 18.051491 8.074488
349 117 1 -0.8476 0.669699 12.341222 3.039724
350 117 2 0.4238 1.078800 11.487965 2.826439
351 117 2 0.4238 1.351467 13.030958 3.058573
352 118 1 -0.8476 12.192935 4.317401 7.893535
353 118 2 0.4238 12.938951 4.932873 7.819007
354 118 2 0.4238 12.409884 3.489566 7.436895
355 119 1 -0.8476 4.065245 13.797060 11.400870
356 119 2 0.4238 3.788441 12.959971 10.996443
357 119 2 0.4238 3.831639 14.532773 10.813458
358 120 1 -0.8476 6.022873 5.300236 22.288226
359 120 2 0.4238 6.991714 5.252978 22.292113
360 120 2 0.4238 5.744566 6.220703 22.161008
361 121 1 -0.8476 15.452386 13.439646 6.141609
362 121 2 0.4238 16.011967 12.890683 6.712931
363 121 2 0.4238 15.660797 14.375631 6.287881
364 122 1 -0.8476 10.099868 16.505667 7.356804
365 122 2 0.4238 9.580519 17.249849 7.699398
366 122 2 0.4238 9.773044 15.678205 7.743315
367 123 1 -0.8476 18.549097 22.563891 7.075692
368 123 2 0.4238 19.486154 22.725083 7.267630
369 123 2 0.4238 18.416293 21.623148 6.880081
370 124 1 -0.8476 4.103889 2.265703 10.224189
371 124 2 0.4238 3.921987 2.107241 9.284667
372 124 2 0.4238 4.026931 1.431744 10.713565
373 125 1 -0.8476 17.803999 8.538412 14.520618
374 125 2 0.4238 17.103665 7.876152 14.411793
375 125 2 0.4238 17.408440 9.422975 14.565121
376 126 1 -0.8476 23.765066 22.615348 10.445890
377 126 2 0.4238 23.800057 23.581472 10.525132
378 126 2 0.4238 22.880185 22.346788 10.153044
379 127 1 -0.8476 18.334365 12.064104 11.235304
380 127 2 0.4238 19.104672 12.608063 11.462538
381 127 2 0.4238 17.589751 12.639889 11.000954
382 128 1 -0.8476 21.306552 13.691082 16.817575
383 128 2 0.4238 22.001353 14.159489 16.328957
384 128 2 0.4238 20.851515 13.075282 16.222067
385 129 1 -0.8476 19.843336 11.606007 8.264662
386 129 2 0.4238 19.548473 11.682372 9.185598
387 129 2 0.4238 20.630286 11.040437 8.222968
388 130 1 -0.8476 6.576199 17.652593 5.033527
389 130 2 0.4238 6.606130 16.731108 4.732082
390 130 2 0.4238 7.468651 18.031504 5.004274
391 131 1 -0.8476 6.884272 1.953524 22.146565
392 131 2 0.4238 7.298044 2.758177 22.496173
393 131 2 0.4238 6.943740 1.953830 21.178390
394 132 1 -0.8476 4.629880 18.819744 10.583684
395 132 2 0.4238 4.152212 18.584618 9.772852
396 132 2 0.4238 4.682269 18.044560 11.164411
397 133 1 -0.8476 6.740264 12.261617 13.742240
398 133 2 0.4238 6.352594 11.372903 13.770528
399 133 2 0.4238 6.125303 12.868751 13.301660
400 134 1 -0.8476 16.225218 24.120476 3.874355
401 134 2 0.4238 16.911446 23.532790 4.227365
402 134 2 0.4238 16.200689 24.044809 2.907623
403 135 1 -0.8476 6.621546 15.426923 19.163548
404 135 2 0.4238 6.413139 15.002568 20.010536
405 135 2 0.4238 6.598071 14.764327 18.455512
406 136 1 -0.8476 16.669105 17.100192 15.362623
407 136 2 0.4238 16.568518 16.526100 16.137994
408 136 2 0.4238 16.632933 18.028707 15.640921
409 137 1 -0.8476 15.076627 17.768504 7.365254
410 137 2 0.4238 15.865371 18.056133 7.851105
411 137 2 0.4238 15.165734 16.831791 7.129611
412 138 1 -0.8476 4.645891 11.112713 16.588541
413 138 2 0.4238 4.593044 12.062600 16.777806
414 138 2 0.4238 4.411177 10.610836 17.384737
415 139 1 -0.8476 1.365438 6.952259 9.432428
416 139 2 0.4238 1.105069 6.022444 9.524904
417 139 2 0.4238 2.130731 7.131788 10.000755
418 140 1 -0.8476 11.058219 23.870245 18.182772
419 140 2 0.4238 10.236274 23.359067 18.119492
420 140 2 0.4238 11.814349 23.263657 18.217656
421 141 1 -0.8476 13.889200 10.377948 12.266397
422 141 2 0.4238 14.851324 10.472994 12.345039
423 141 2 0.4238 13.462802 11.224688 12.471615
424 142 1 -0.8476 13.733674 9.987355 14.427631
425 142 2 0.4238 12.923904 9.477005 14.270421
426 142 2 0.4238 14.499224 9.391871 14.412462
427 143 1 -0.8476 19.603077 23.738969 15.736148
428 143 2 0.4238 20.138239 23.018896 15.367371
429 143 2 0.4238 18.749550 23.387507 16.034250
430 144 1 -0.8476 5.172921 7.673650 17.548711
431 144 2 0.4238 5.375559 6.974486 18.189809
432 144 2 0.4238 4.211154 7.755546 17.452812
433 145 1 -0.8476 1.101585 0.790697 10.006816
434 145 2 0.4238 0.800750 0.001987 9.528972
435 145 2 0.4238 2.001063 0.644024 10.338968
436 146 1 -0.8476 5.099965 4.735478 2.738038
437 146 2 0.4238 4.731631 5.570950 3.065476
438 146 2 0.4238 6.037778 4.857963 2.522624
439 147 1 -0.8476 13.093989 6.744625 20.377295
440 147 2 0.4238 13.952110 7.047573 20.713079
441 147 2 0.4238 12.652882 7.473261 19.913170
442 148 1 -0.8476 11.646482 23.081828 11.899619
443 148 2 0.4238 11.196464 23.676641 11.279472
444 148 2 0.4238 12.597860 23.077188 11.710524
445 149 1 -0.8476 4.054719 4.187838 21.169768
446 149 2 0.4238 3.973676 3.221536 21.194080
447 149 2 0.4238 4.091033 4.486155 20.247495
448 150 1 -0.8476 5.056054 8.890053 15.101320
449 150 2 0.4238 5.391478 9.033153 14.202480
450 150 2 0.4238 5.677529 9.268958 15.742489
451 151 1 -0.8476 16.905092 4.303306 1.614060
452 151 2 0.4238 16.790923 4.981313 0.929829
453 151 2 0.4238 17.049335 4.731323 2.472485
454 152 1 -0.8476 3.897086 5.853380 16.390333
455 152 2 0.4238 3.928674 6.267261 15.513632
456 152 2 0.4238 3.029643 6.015122 16.793174
457 153 1 -0.8476 17.520195 8.155728 12.028081
458 153 2 0.4238 16.973899 7.358553 11.944574
459 153 2 0.4238 18.420906 7.904856 12.286308
460 154 1 -0.8476 19.566693 20.976646 13.137675
461 154 2 0.4238 18.917062 20.268306 13.006778
462 154 2 0.4238 20.441823 20.588129 13.292918
463 155 1 -0.8476 6.618165 22.382241 15.038134
464 155 2 0.4238 7.395787 22.626148 14.512099
465 155 2 0.4238 6.597149 21.419783 15.157017
466 156 1 -0.8476 19.457609 13.566487 19.433383
467 156 2 0.4238 19.604316 12.607915 19.410637
468 156 2 0.4238 20.301276 14.025976 19.299243
469 157 1 -0.8476 20.083087 8.681594 16.187521
470 157 2 0.4238 19.491008 8.498903 16.933823
471 157 2 0.4238 20.368342 7.844651 15.788703
472 158 1 -0.8476 15.087820 21.881446 11.490313
473 158 2 0.4238 15.923382 21.566650 11.111316
474 158 2 0.4238 14.884832 22.762362 11.138627
475 159 1 -0.8476 18.064631 4.611670 9.241016
476 159 2 0.4238 18.774013 4.630692 8.579718
477 159 2 0.4238 17.398815 5.281657 9.020325
478 160 1 -0.8476 5.373648 2.003364 5.852987
479 160 2 0.4238 6.159417 2.426513 5.472971
480 160 2 0.4238 5.272756 1.113939 5.479300
481 161 1 -0.8476 24.070174 9.389126 0.473663
482 161 2 0.4238 24.173663 10.092664 1.133379
483 161 2 0.4238 23.229437 9.506999 0.004444
484 162 1 -0.8476 8.439937 23.102594 19.833616
485 162 2 0.4238 8.931609 23.889200 20.117182
486 162 2 0.4238 7.490414 23.300643 19.824576
487 163 1 -0.8476 7.934892 2.774090 17.221560
488 163 2 0.4238 8.350053 2.596262 16.363121
489 163 2 0.4238 7.033935 3.105518 17.082529
490 164 1 -0.8476 21.674736 18.901475 23.353240
491 164 2 0.4238 21.334070 19.675972 23.827582
492 164 2 0.4238 22.229195 19.193798 22.612956
493 165 1 -0.8476 0.895217 18.321292 17.869281
494 165 2 0.4238 1.075162 18.581650 18.786196
495 165 2 0.4238 0.200327 17.644651 17.855736
496 166 1 -0.8476 13.304889 0.652539 8.210035
497 166 2 0.4238 13.582967 0.062293 7.492274
498 166 2 0.4238 12.573431 1.211341 7.904079
499 167 1 -0.8476 6.651563 12.107101 18.458284
500 167 2 0.4238 5.848474 12.615785 18.651127
501 167 2 0.4238 6.731420 11.979919 17.499980
502 168 1 -0.8476 18.919927 5.214111 22.217179
503 168 2 0.4238 18.850595 4.279542 21.966831
504 168 2 0.4238 18.045507 5.630004 22.159556
505 169 1 -0.8476 4.606184 11.431969 1.887295
506 169 2 0.4238 3.944965 12.141637 1.895107
507 169 2 0.4238 5.487723 11.809791 2.032346
508 170 1 -0.8476 15.588671 2.152983 6.983914
509 170 2 0.4238 16.556380 2.192301 7.037690
510 170 2 0.4238 15.257291 1.484492 7.603758
511 171 1 -0.8476 15.602485 18.016728 4.606375
512 171 2 0.4238 14.957273 17.416746 4.200638
513 171 2 0.4238 15.162863 18.554178 5.283708
514 172 1 -0.8476 6.131840 15.957275 11.480615
515 172 2 0.4238 5.427118 15.931139 12.146635
516 172 2 0.4238 6.126256 15.131699 10.971408
517 173 1 -0.8476 16.990235 2.218565 4.157527
518 173 2 0.4238 17.481992 1.829172 3.417629
519 173 2 0.4238 17.266266 1.797342 4.986549
520 174 1 -0.8476 21.751611 13.381502 3.532122
521 174 2 0.4238 21.411336 12.975976 4.344933
522 174 2 0.4238 22.332518 12.752839 3.075802
523 175 1 -0.8476 10.163281 3.358853 14.401140
524 175 2 0.4238 9.210207 3.185776 14.350213
525 175 2 0.4238 10.648830 2.524132 14.309588
526 176 1 -0.8476 16.155762 18.064054 19.649962
527 176 2 0.4238 16.326713 17.110678 19.597517
528 176 2 0.4238 15.198648 18.220256 19.670765
529 177 1 -0.8476 11.906073 11.845792 20.340226
530 177 2 0.4238 11.335498 11.128065 20.023661
531 177 2 0.4238 11.832828 11.915494 21.304942
532 178 1 -0.8476 18.737821 18.069603 16.365912
533 178 2 0.4238 18.699981 18.789692 15.717114
534 178 2 0.4238 19.571523 18.122095 16.858949
535 179 1 -0.8476 17.502137 3.442565 15.916602
536 179 2 0.4238 17.560595 2.769054 16.612207
537 179 2 0.4238 18.016556 3.156563 15.145580
538 180 1 -0.8476 21.808314 0.584506 20.381083
539 180 2 0.4238 22.341994 0.017590 19.802556
540 180 2 0.4238 21.164741 0.041038 20.862078
541 181 1 -0.8476 19.790045 12.069899 1.635679
542 181 2 0.4238 19.953990 11.857029 2.567725
543 181 2 0.4238 19.420604 11.293406 1.186824
544 182 1 -0.8476 18.202167 19.002847 0.618992
545 182 2 0.4238 18.076151 18.044247 0.540847
546 182 2 0.4238 17.348736 19.427598 0.798270
547 183 1 -0.8476 3.353520 2.127135 6.756002
548 183 2 0.4238 2.667881 2.542226 7.302353
549 183 2 0.4238 3.085900 2.156101 5.824102
550 184 1 -0.8476 10.135664 1.083081 21.780269
551 184 2 0.4238 10.736898 0.897289 22.518441
552 184 2 0.4238 9.281695 0.652636 21.942605
553 185 1 -0.8476 3.580288 20.283957 0.694214
554 185 2 0.4238 3.876056 19.705893 1.414814
555 185 2 0.4238 3.963717 21.167366 0.810272
556 186 1 -0.8476 9.913900 0.016852 13.468777
557 186 2 0.4238 10.613821 0.037143 14.140043
558 186 2 0.4238 9.407081 0.843120 13.505033
559 187 1 -0.8476 14.560426 1.817625 4.521871
560 187 2 0.4238 14.378345 0.954887 4.926137
561 187 2 0.4238 13.730230 2.309011 4.420809
562 188 1 -0.8476 21.302774 5.039175 2.903048
563 188 2 0.4238 20.803416 5.824243 2.628803
564 188 2 0.4238 20.973370 4.730011 3.761424
565 189 1 -0.8476 21.936450 23.752852 22.302290
566 189 2 0.4238 21.208724 24.014050 22.888030
567 189 2 0.4238 21.660127 22.997192 21.760513
568 190 1 -0.8476 20.150766 5.929488 16.951356
569 190 2 0.4238 20.266346 6.489028 17.735229
570 190 2 0.4238 19.562241 5.189065 17.166554
571 191 1 -0.8476 0.057084 12.298103 12.865951
572 191 2 0.4238 0.852363 12.530915 13.370162
573 191 2 0.4238 0.060686 12.771836 12.019509
574 192 1 -0.8476 13.909405 15.682979 20.791904
575 192 2 0.4238 13.077073 16.002843 20.410054
576 192 2 0.4238 14.572718 16.389998 20.759647
577 193 1 -0.8476 17.777597 18.247463 21.573676
578 193 2 0.4238 17.246056 17.436542 21.601444
579 193 2 0.4238 17.350176 18.932781 22.110843
580 194 1 -0.8476 5.117960 4.474359 24.115977
581 194 2 0.4238 4.341456 3.893726 24.144361
582 194 2 0.4238 5.919786 3.937396 24.017775
583 195 1 -0.8476 10.103472 12.429882 1.729259
584 195 2 0.4238 9.334450 11.844088 1.808942
585 195 2 0.4238 9.840338 13.250030 1.283145
586 196 1 -0.8476 8.604899 3.824949 19.771077
587 196 2 0.4238 8.057927 4.253471 20.447900
588 196 2 0.4238 8.631465 2.869152 19.934310
589 197 1 -0.8476 23.105764 22.767506 14.069000
590 197 2 0.4238 22.839038 21.842606 14.188650
591 197 2 0.4238 22.641957 23.323824 14.714207
592 198 1 -0.8476 10.200700 4.689844 4.172030
593 198 2 0.4238 10.120665 5.632415 3.957429
594 198 2 0.4238 9.319110 4.285498 4.186305
595 199 1 -0.8476 18.294460 20.777821 19.764695
596 199 2 0.4238 17.612426 20.088776 19.733912
597 199 2 0.4238 17.883703 21.645714 19.627078
598 200 1 -0.8476 4.807460 1.058154 22.672155
599 200 2 0.4238 5.251909 1.173472 23.526595
600 200 2 0.4238 3.983553 0.562582 22.800546
601 201 1 -0.8476 16.481017 16.835234 1.461409
602 201 2 0.4238 15.863922 16.736826 2.203306
603 201 2 0.4238 16.923535 15.988364 1.294415
604 202 1 -0.8476 2.002509 5.455020 23.473985
605 202 2 0.4238 1.727736 5.059857 22.631818
606 202 2 0.4238 1.413600 5.149806 24.181749
607 203 1 -0.8476 10.789463 3.880031 1.645919
608 203 2 0.4238 10.140459 3.303554 2.078779
609 203 2 0.4238 10.493780 4.801923 1.705802
610 204 1 -0.8476 19.317870 1.420897 13.099001
611 204 2 0.4238 18.919812 0.536367 13.091482
612 204 2 0.4238 18.626401 2.085408 13.244587
613 205 1 -0.8476 14.010619 8.208554 10.123894
614 205 2 0.4238 14.055350 8.425605 9.179549
615 205 2 0.4238 14.329011 7.302909 10.262934
616 206 1 -0.8476 0.265061 5.653614 18.358750
617 206 2 0.4238 0.035596 4.764412 18.046395
618 206 2 0.4238 1.226455 5.719252 18.469709
619 207 1 -0.8476 8.694201 5.159517 15.843431
620 207 2 0.4238 8.826179 6.075398 16.134365
621 207 2 0.4238 9.414296 4.605430 16.183063
622 208 1 -0.8476 16.748784 10.487933 9.813146
623 208 2 0.4238 15.938365 10.756102 9.352488
624 208 2 0.4238 16.598652 9.643719 10.266646
625 209 1 -0.8476 8.376824 6.517500 24.169941
626 209 2 0.4238 9.039742 5.833738 23.985794
627 209 2 0.4238 8.111607 6.942719 23.339430
628 210 1 -0.8476 7.768780 21.763660 5.918155
629 210 2 0.4238 7.990635 22.503308 5.331128
630 210 2 0.4238 8.561456 21.487822 6.404445
631 211 1 -0.8476 8.134302 13.517052 9.801890
632 211 2 0.4238 8.593973 12.933423 10.425573
633 211 2 0.4238 8.688036 13.651743 9.016947
634 212 1 -0.8476 9.259537 18.254076 13.867163
635 212 2 0.4238 8.980364 17.329522 13.776815
636 212 2 0.4238 8.921226 18.768687 13.117750
637 213 1 -0.8476 21.969064 14.198563 8.588868
638 213 2 0.4238 22.751703 14.724937 8.362357
639 213 2 0.4238 22.232766 13.278517 8.746589
640 214 1 -0.8476 4.239456 23.070738 16.158319
641 214 2 0.4238 4.198785 22.754522 15.242212
642 214 2 0.4238 5.084621 23.522921 16.307067
643 215 1 -0.8476 15.569629 19.768920 2.562414
644 215 2 0.4238 15.341054 18.873535 2.267560
645 215 2 0.4238 14.964073 20.040872 3.269692
646 216 1 -0.8476 2.728270 17.798600 4.658207
647 216 2 0.4238 3.476732 17.669817 5.261630
648 216 2 0.4238 2.776942 18.684990 4.267258
649 217 1 -0.8476 8.009665 18.791678 7.695321
650 217 2 0.4238 7.769771 19.385178 6.966549
651 217 2 0.4238 7.654281 19.141317 8.527399
652 218 1 -0.8476 15.774543 0.684968 2.094264